<LesHouchesEvents version="1.0">
<init>
   2212   -2212         980         980     -1     -1     -1     -1      3      1
     216.824     1.01461        1.0      81
</init>
<event>
      5       81    1.0     103.883  0.00754677    0.127003
      1   -1    0    0  501     0         0.0         0.0      20.458      20.458         0.0       0.0        9.0
     -2   -1    0    0    0   502         0.0         0.0    -357.468     357.468         0.0       0.0        9.0
     21    1    1    2  501   502      37.061     -54.323    -109.839      128.02           0       0.0        9.0
     11    1    1    2    0     0      -51.82      65.186    -161.231     181.466       0.001       0.0        9.0
    -12    1    1    2    0     0      14.759     -10.863     -65.941     68.4401           0       0.0        9.0
</event>
<event>
      5       81    1.0     83.9093  0.00754677    0.127003
      1   -1    0    0  501     0         0.0         0.0      33.073      33.073         0.0       0.0        9.0
     -2   -1    0    0    0   502         0.0         0.0     -95.096      95.096         0.0       0.0        9.0
     21    1    1    2  501   502     -14.363      19.164     -29.513     38.0075           0       0.0        9.0
     11    1    1    2    0     0      30.895       13.47       8.948     34.8713       0.001       0.0        9.0
    -12    1    1    2    0     0     -16.532     -32.634     -41.458     55.2906           0       0.0        9.0
</event>
<event>
      5       81    1.0     94.5565  0.00754677    0.127003
      2   -1    0    0  502     0         0.0         0.0     128.506     128.506         0.0       0.0        9.0
     -1   -1    0    0    0   501         0.0         0.0     -45.587      45.587         0.0       0.0        9.0
     21    1    1    2  502   501     -24.646       -43.2      -3.886     49.8875           0       0.0        9.0
     12    1    1    2    0     0       5.998       20.85      92.099     94.6199           0       0.0        9.0
    -11    1    1    2    0     0      18.648       22.35      -5.293     29.5852       0.001       0.0        9.0
</event>
<event>
      5       81    1.0     102.666  0.00754677    0.127003
      1   -1    0    0  501     0         0.0         0.0      23.802      23.802         0.0       0.0        9.0
     -2   -1    0    0    0   502         0.0         0.0    -440.387     440.387         0.0       0.0        9.0
     21    1    1    2  501   502      23.316      59.409     -43.797     77.4031           0       0.0        9.0
     11    1    1    2    0     0     -20.626     -32.417     -50.987     63.8433       0.001       0.0        9.0
    -12    1    1    2    0     0       -2.69     -26.992    -321.801     322.942           0       0.0        9.0
</event>
<event>
      5       81    1.0     83.0602  0.00754677    0.127003
      1   -1    0    0  501     0         0.0         0.0      13.426      13.426         0.0       0.0        9.0
     21   -1    0    0  502   501         0.0         0.0    -232.822     232.822         0.0       0.0        9.0
      2    1    1    2  502     0       3.938     -20.403     -93.709     95.9852           0       0.0        9.0
     11    1    1    2    0     0      -14.79      22.453      -2.971     27.0501       0.001       0.0        9.0
    -12    1    1    2    0     0      10.852      -2.051    -122.716     123.212           0       0.0        9.0
</event>
<event>
      5       81    1.0     85.0581  0.00754677    0.127003
      1   -1    0    0  501     0         0.0         0.0      29.976      29.976         0.0       0.0        9.0
     -2   -1    0    0    0   502         0.0         0.0    -114.157     114.157         0.0       0.0        9.0
     21    1    1    2  501   502     -18.261      20.838     -32.768     42.9119           0       0.0        9.0
     11    1    1    2    0     0      -0.731       4.401      21.396     21.8562       0.001       0.0        9.0
    -12    1    1    2    0     0      18.992     -25.239      -72.81     79.3662           0       0.0        9.0
</event>
<event>
      5       81    1.0     84.3589  0.00754677    0.127003
      2   -1    0    0  502     0         0.0         0.0      185.99      185.99         0.0       0.0        9.0
     -1   -1    0    0    0   501         0.0         0.0     -16.866      16.866         0.0       0.0        9.0
     21    1    1    2  502   501      18.906     -17.081      59.145     64.3998           0       0.0        9.0
     12    1    1    2    0     0     -33.176      -0.274     111.112     115.959           0       0.0        9.0
    -11    1    1    2    0     0       14.27      17.355      -1.134      22.497       0.001       0.0        9.0
</event>
<event>
      5       81    1.0     82.9356  0.00754677    0.127003
      2   -1    0    0  502     0         0.0         0.0      49.317      49.317         0.0       0.0        9.0
     -1   -1    0    0    0   501         0.0         0.0     -65.986      65.986         0.0       0.0        9.0
     21    1    1    2  502   501      15.407      13.181     -21.199     29.3345           0       0.0        9.0
     12    1    1    2    0     0     -37.332     -26.923      25.539     52.6381           0       0.0        9.0
    -11    1    1    2    0     0      21.925      13.743     -21.008     33.3303       0.001       0.0        9.0
</event>
<event>
      5       81    1.0     90.4473  0.00754677    0.127003
      2   -1    0    0  502     0         0.0         0.0      191.97      191.97         0.0       0.0        9.0
     21   -1    0    0  501   502         0.0         0.0      -26.27       26.27         0.0       0.0        9.0
      1    1    1    2  501     0      27.259      31.152      18.605     45.3833           0       0.0        9.0
     12    1    1    2    0     0     -40.937     -10.637     141.346     147.539           0       0.0        9.0
    -11    1    1    2    0     0      13.678     -20.515       5.749     25.3181       0.001       0.0        9.0
</event>
<event>
      5       81    1.0     98.2527  0.00754677    0.127003
     21   -1    0    0  502   501         0.0         0.0      43.742      43.742         0.0       0.0        9.0
     -2   -1    0    0    0   502         0.0         0.0    -195.281     195.281         0.0       0.0        9.0
     -1    1    1    2    0   501       2.562      -56.39    -124.524     136.721           0       0.0        9.0
    -12    1    1    2    0     0     -12.914      64.345     -45.365     79.7812           0       0.0        9.0
     11    1    1    2    0     0      10.352      -7.955       18.35     22.5204       0.001       0.0        9.0
</event>
<event>
      5       81    1.0      91.052  0.00754677    0.127003
      1   -1    0    0  501     0         0.0         0.0      14.678      14.678         0.0       0.0        9.0
     -2   -1    0    0    0   502         0.0         0.0    -331.556     331.556         0.0       0.0        9.0
     21    1    1    2  501   502      -0.205     -42.699    -140.656     146.994           0       0.0        9.0
     11    1    1    2    0     0        5.15      10.671       6.603     13.5644       0.001       0.0        9.0
    -12    1    1    2    0     0      -4.945      32.028    -182.825     185.675           0       0.0        9.0
</event>
<event>
      5       81    1.0     91.6797  0.00754677    0.127003
     21   -1    0    0  502   501         0.0         0.0       50.45       50.45         0.0       0.0        9.0
     -2   -1    0    0    0   502         0.0         0.0    -120.374     120.374         0.0       0.0        9.0
     -1    1    1    2    0   501     -25.446      35.923     -64.003      77.681           0       0.0        9.0
    -12    1    1    2    0     0      -8.899     -21.325      32.307     39.7201           0       0.0        9.0
     11    1    1    2    0     0      34.345     -14.598     -38.228     53.4234       0.001       0.0        9.0
</event>
<event>
      5       81    1.0      83.893  0.00754677    0.127003
     21   -1    0    0  502   501         0.0         0.0      40.453      40.453         0.0       0.0        9.0
     -2   -1    0    0    0   502         0.0         0.0     -72.184      72.184         0.0       0.0        9.0
     -1    1    1    2    0   501       0.406     -23.888      -9.105     25.5676           0       0.0        9.0
    -12    1    1    2    0     0      -0.094      20.408     -52.845     56.6488           0       0.0        9.0
     11    1    1    2    0     0      -0.312        3.48      30.219     30.4203       0.001       0.0        9.0
</event>
<event>
      5       81    1.0     98.9181  0.00754677    0.127003
      1   -1    0    0  501     0         0.0         0.0     154.309     154.309         0.0       0.0        9.0
     -2   -1    0    0    0   502         0.0         0.0     -41.583      41.583         0.0       0.0        9.0
     21    1    1    2  501   502     -56.544      -10.97      16.404     59.8887           0       0.0        9.0
     11    1    1    2    0     0      41.398       7.994      108.46     116.367       0.001       0.0        9.0
    -12    1    1    2    0     0      15.146       2.976     -12.138     19.6364           0       0.0        9.0
</event>
<event>
      5       81    1.0     86.2395  0.00754677    0.127003
     21   -1    0    0  502   501         0.0         0.0     183.162     183.162         0.0       0.0        9.0
      3   -1    0    0  501     0         0.0         0.0     -18.656      18.656         0.0       0.0        9.0
      4    1    1    2  502     0      21.982     -22.064       43.11     53.1836           0       0.0        9.0
     11    1    1    2    0     0     -49.719      11.092      98.987     111.326       0.001       0.0        9.0
    -12    1    1    2    0     0      27.737      10.973       22.41     37.3089           0       0.0        9.0
</event>
<event>
      5       81    1.0     104.144  0.00754677    0.127003
      1   -1    0    0  501     0         0.0         0.0     209.008     209.008         0.0       0.0        9.0
     21   -1    0    0  502   501         0.0         0.0      -35.86       35.86         0.0       0.0        9.0
      2    1    1    2  502     0      47.943       45.61      46.214     80.7127           0       0.0        9.0
     11    1    1    2    0     0       7.202     -28.093       92.24     96.6918       0.001       0.0        9.0
    -12    1    1    2    0     0     -55.145     -17.517      34.693     67.4642           0       0.0        9.0
</event>
<event>
      5       81    1.0     84.1335  0.00754677    0.127003
      2   -1    0    0  502     0         0.0         0.0     279.779     279.779         0.0       0.0        9.0
     -1   -1    0    0    0   501         0.0         0.0     -29.855      29.855         0.0       0.0        9.0
     21    1    1    2  502   501       6.609     -23.823     -11.294     27.1803           0       0.0        9.0
     12    1    1    2    0     0     -25.526     -21.966     204.023     206.784           0       0.0        9.0
    -11    1    1    2    0     0      18.917       45.79      57.195     75.6693       0.001       0.0        9.0
</event>
<event>
      5       81    1.0     98.0658  0.00754677    0.127003
     21   -1    0    0  502   501         0.0         0.0      18.546      18.546         0.0       0.0        9.0
     -2   -1    0    0    0   502         0.0         0.0    -400.899     400.899         0.0       0.0        9.0
     -1    1    1    2    0   501     -50.537      24.408     -58.921     81.3721           0       0.0        9.0
    -12    1    1    2    0     0     -17.413      -9.881    -148.554     149.897           0       0.0        9.0
     11    1    1    2    0     0       67.95     -14.526    -174.877     188.176       0.001       0.0        9.0
</event>
<event>
      5       81    1.0     110.964  0.00754677    0.127003
      2   -1    0    0  502     0         0.0         0.0      74.222      74.222         0.0       0.0        9.0
     -1   -1    0    0    0   501         0.0         0.0    -410.213     410.213         0.0       0.0        9.0
     21    1    1    2  502   501      66.203      38.249        -362     369.986           0       0.0        9.0
     12    1    1    2    0     0     -46.299     -55.174      -6.983     72.3639           0       0.0        9.0
    -11    1    1    2    0     0     -19.904      16.925      32.993     42.0852       0.001       0.0        9.0
</event>
<event>
      5       81    1.0     83.2335  0.00754677    0.127003
      1   -1    0    0  501     0         0.0         0.0      36.856      36.856         0.0       0.0        9.0
     -2   -1    0    0    0   502         0.0         0.0      -77.64       77.64         0.0       0.0        9.0
     21    1    1    2  501   502     -10.533       -18.7       2.485     21.6058           0       0.0        9.0
     11    1    1    2    0     0       5.412      22.098      19.413     29.9078       0.001       0.0        9.0
    -12    1    1    2    0     0        5.12      -3.398     -62.682     62.9825           0       0.0        9.0
</event>
<event>
      5       81    1.0     85.8376  0.00754677    0.127003
      1   -1    0    0  501     0         0.0         0.0      33.407      33.407         0.0       0.0        9.0
     -2   -1    0    0    0   502         0.0         0.0    -148.821     148.821         0.0       0.0        9.0
     21    1    1    2  501   502     -19.661      22.679       6.729     30.7599           0       0.0        9.0
     11    1    1    2    0     0     -23.031      16.273     -21.687     35.5748       0.001       0.0        9.0
    -12    1    1    2    0     0      42.692     -38.952    -100.457     115.894           0       0.0        9.0
</event>
<event>
      5       81    1.0     100.727  0.00754677    0.127003
     21   -1    0    0  501   502         0.0         0.0      52.765      52.765         0.0       0.0        9.0
     -1   -1    0    0    0   501         0.0         0.0    -235.393     235.393         0.0       0.0        9.0
     -2    1    1    2    0   502       3.634      60.544      18.346     63.3668           0       0.0        9.0
    -11    1    1    2    0     0      -4.978     -74.353    -196.592     210.242       0.001       0.0        9.0
     12    1    1    2    0     0       1.344      13.809      -4.382     14.5498           0       0.0        9.0
</event>
<event>
      5       81    1.0     94.3898  0.00754677    0.127003
      2   -1    0    0  502     0         0.0         0.0      87.429      87.429         0.0       0.0        9.0
     -1   -1    0    0    0   501         0.0         0.0     -99.549      99.549         0.0       0.0        9.0
     21    1    1    2  502   501     -49.255      -4.016      51.643     71.4785           0       0.0        9.0
     12    1    1    2    0     0     -15.989       0.303       8.465     18.0941           0       0.0        9.0
    -11    1    1    2    0     0      65.245       3.713     -72.228     97.4042       0.001       0.0        9.0
</event>
<event>
      5       81    1.0      83.336  0.00754677    0.127003
     -2   -1    0    0    0   502         0.0         0.0      83.714      83.714         0.0       0.0        9.0
      1   -1    0    0  501     0         0.0         0.0       -35.2        35.2         0.0       0.0        9.0
     21    1    1    2  501   502     -21.211      -5.269      30.451     37.4824           0       0.0        9.0
    -12    1    1    2    0     0      45.846      13.727      25.655     54.2998           0       0.0        9.0
     11    1    1    2    0     0     -24.635      -8.458      -7.593     27.1307       0.001       0.0        9.0
</event>
</LesHouchesEvents>
